# vtk DataFile Version 2.0
Example Mesh
ASCII
DATASET UNSTRUCTURED_GRID
POINTS 9 double
0.000000e+00 0.000000e+00 0.0
5.000000e-01 0.000000e+00 0.0
1.000000e+00 0.000000e+00 0.0
0.000000e+00 5.000000e-01 0.0
5.000000e-01 5.000000e-01 0.0
1.000000e+00 5.000000e-01 0.0
0.000000e+00 1.000000e+00 0.0
5.000000e-01 1.000000e+00 0.0
1.000000e+00 1.000000e+00 0.0
CELLS 8 32
3  0 1 3
3  4 6 3
3  3 1 4
3  4 2 5
3  2 4 1
3  7 5 8
3  5 7 4
3  4 7 6
CELL_TYPES 8
5
5
5
5
5
5
5
5
POINT_DATA 9
VECTORS Exact_Solutionfield.Re double
1.000000e+00 0.000000e+00 0.0
1.000000e+00 0.000000e+00 0.0
1.000000e+00 0.000000e+00 0.0
1.000000e+00 0.000000e+00 0.0
1.000000e+00 0.000000e+00 0.0
1.000000e+00 0.000000e+00 0.0
1.000000e+00 0.000000e+00 0.0
1.000000e+00 0.000000e+00 0.0
1.000000e+00 0.000000e+00 0.0
VECTORS Exact_Solutionfield.Im double
0.000000e+00 0.000000e+00 0.0
0.000000e+00 0.000000e+00 0.0
0.000000e+00 0.000000e+00 0.0
0.000000e+00 0.000000e+00 0.0
0.000000e+00 0.000000e+00 0.0
0.000000e+00 0.000000e+00 0.0
0.000000e+00 0.000000e+00 0.0
0.000000e+00 0.000000e+00 0.0
0.000000e+00 0.000000e+00 0.0
CELL_DATA 8
SCALARS Exact_Solutionpotential.Re double 1
LOOKUP_TABLE default
1.666667e-01
1.666667e-01
3.333333e-01
8.333333e-01
6.666667e-01
8.333333e-01
6.666667e-01
3.333333e-01
SCALARS Exact_Solutionpotential.Im double 1
LOOKUP_TABLE default
0.000000e+00
0.000000e+00
0.000000e+00
0.000000e+00
0.000000e+00
0.000000e+00
0.000000e+00
0.000000e+00
L_2 Error: [1.85636e-16, 0.117851]
L_2 Residual: 0.253829
Taylor approximation converging at order 1.00
L_2 convergence rate: [0.050, 1.0]
# vtk DataFile Version 2.0
Example Mesh
ASCII
DATASET UNSTRUCTURED_GRID
POINTS 9 double
0.000000e+00 0.000000e+00 0.0
5.000000e-01 0.000000e+00 0.0
1.000000e+00 0.000000e+00 0.0
0.000000e+00 5.000000e-01 0.0
5.000000e-01 5.000000e-01 0.0
1.000000e+00 5.000000e-01 0.0
0.000000e+00 1.000000e+00 0.0
5.000000e-01 1.000000e+00 0.0
1.000000e+00 1.000000e+00 0.0
CELLS 8 32
3  0 1 3
3  4 6 3
3  3 1 4
3  4 2 5
3  2 4 1
3  7 5 8
3  5 7 4
3  4 7 6
CELL_TYPES 8
5
5
5
5
5
5
5
5
POINT_DATA 9
VECTORS potentialfield.Re double
5.513188e+00 4.922244e+00 0.0
6.057658e+00 -3.627029e-02 0.0
6.121741e+00 -2.514774e+00 0.0
5.861181e+00 4.611937e-02 0.0
6.162271e+00 2.591869e-02 0.0
5.861181e+00 4.611937e-02 0.0
6.121741e+00 -2.514774e+00 0.0
6.057658e+00 -3.627029e-02 0.0
5.513188e+00 4.922244e+00 0.0
VECTORS potentialfield.Im double
0.000000e+00 0.000000e+00 0.0
0.000000e+00 0.000000e+00 0.0
0.000000e+00 0.000000e+00 0.0
0.000000e+00 0.000000e+00 0.0
0.000000e+00 0.000000e+00 0.0
0.000000e+00 0.000000e+00 0.0
0.000000e+00 0.000000e+00 0.0
0.000000e+00 0.000000e+00 0.0
0.000000e+00 0.000000e+00 0.0
CELL_DATA 8
SCALARS potentialpotential.Re double 1
LOOKUP_TABLE default
1.689986e-01
1.767483e-01
2.823194e-01
8.232517e-01
6.865725e-01
8.310014e-01
7.176806e-01
3.134275e-01
SCALARS potentialpotential.Im double 1
LOOKUP_TABLE default
0.000000e+00
0.000000e+00
0.000000e+00
0.000000e+00
0.000000e+00
0.000000e+00
0.000000e+00
0.000000e+00
